 Gaussian 16, Revision C.01,
 Gaussian 16:  ES64L-G16RevC.01  3-Jul-2019

 ----------------------------------
 # opt HF/6-31g* Pop=MK iop(6/33=2)
 ----------------------------------

 -----
 title
 -----
 Symbolic Z-matrix:
 Charge =  1 Multiplicity = 1

 SCF Done:  E(RHF) =  -513.859516478     A.U. after   15 cycles
 SCF Done:  E(RHF) =  -513.867243173     A.U. after   13 cycles
 SCF Done:  E(RHF) =  -513.869354246     A.U. after   12 cycles
 SCF Done:  E(RHF) =  -513.870354380     A.U. after   13 cycles
 SCF Done:  E(RHF) =  -513.871988373     A.U. after   15 cycles
 SCF Done:  E(RHF) =  -513.873509557     A.U. after   13 cycles
 SCF Done:  E(RHF) =  -513.875930312     A.U. after   15 cycles
 SCF Done:  E(RHF) =  -513.876540985     A.U. after   12 cycles
 SCF Done:  E(RHF) =  -513.876352661     A.U. after   13 cycles
 SCF Done:  E(RHF) =  -513.876950391     A.U. after   13 cycles
 SCF Done:  E(RHF) =  -513.877010433     A.U. after   12 cycles
 SCF Done:  E(RHF) =  -513.877050698     A.U. after   12 cycles
 SCF Done:  E(RHF) =  -513.877057899     A.U. after   10 cycles
 SCF Done:  E(RHF) =  -513.877059855     A.U. after    9 cycles
 SCF Done:  E(RHF) =  -513.877060166     A.U. after    9 cycles
 Optimization completed.
    -- Stationary point found.

                         Standard orientation:
 ---------------------------------------------------------------------
 Center     Atomic      Atomic             Coordinates (Angstroms)
 Number     Number       Type             X           Y           Z
 ---------------------------------------------------------------------
      1          6           0        0.562792   -0.282937   -0.426210
      2          6           0       -0.202574    0.881442   -0.352551
      3          6           0       -1.549497    0.820791   -0.078250
      4          6           0       -2.154627   -0.423519    0.126812
      5          6           0       -1.405437   -1.574750    0.053244
      6          6           0       -0.042946   -1.506765   -0.222507
      7          6           0        2.049952   -0.184940   -0.694383
      8          6           0        2.793343    0.138200    0.598587
      9          7           0        4.286598    0.278248    0.335014
     10          8           0       -2.261179    1.954223   -0.013727
     11          8           0       -3.479964   -0.380013    0.386986
     12          1           0        0.229822    1.851242   -0.525691
     13          1           0       -1.876342   -2.530265    0.204736
     14          1           0        0.523186   -2.419032   -0.287529
     15          1           0        2.246960    0.589112   -1.431340
     16          1           0        2.417443   -1.121977   -1.101830
     17          1           0        2.688328   -0.644906    1.334288
     18          1           0        2.475867    1.075767    1.029095
     19          1           0        4.800192    0.491060    1.179586
     20          1           0        4.674776   -0.572516   -0.048859
     21          1           0        4.474541    1.018213   -0.327668
     22          1           0       -3.176784    1.761467    0.153178
     23          1           0       -3.861061   -1.244712    0.462407
 ---------------------------------------------------------------------

 The electronic state is 1-A.
 Alpha  occ. eigenvalues --  -20.69884 -20.68075 -15.89210 -11.47081 -11.40353
 Alpha  occ. eigenvalues --  -11.40042 -11.39742 -11.36068 -11.34418 -11.34185
 Alpha  occ. eigenvalues --  -11.33949  -1.52801  -1.51258  -1.49320  -1.27635
 Alpha  occ. eigenvalues --   -1.21739  -1.12810  -1.11931  -1.04386  -0.97559
 Alpha  occ. eigenvalues --   -0.97274  -0.95711  -0.93123  -0.85155  -0.84886
 Alpha  occ. eigenvalues --   -0.82991  -0.80297  -0.76739  -0.74792  -0.72265
 Alpha  occ. eigenvalues --   -0.71518  -0.71196  -0.69498  -0.67941  -0.65809
 Alpha  occ. eigenvalues --   -0.65360  -0.62811  -0.60659  -0.57776  -0.43978
 Alpha  occ. eigenvalues --   -0.40574
 Alpha virt. eigenvalues --   -0.01822   0.03148   0.04505   0.06013   0.06217
 Alpha virt. eigenvalues --    0.09268   0.12289   0.13234   0.13606   0.15129
 Alpha virt. eigenvalues --    0.17581   0.17905   0.19610   0.21272   0.22735

 Mulliken charges:
               1
     1  C    0.017921
     2  C   -0.264565
     3  C    0.390872
     4  C    0.350483
     5  C   -0.250902
     6  C   -0.232451
     7  C   -0.384360
     8  C   -0.208315
     9  N   -0.862346
    10  O   -0.752696
    11  O   -0.775513
    12  H    0.220530
    13  H    0.227410
    14  H    0.210671
    15  H    0.211475
    16  H    0.209935
    17  H    0.261087
    18  H    0.263076
    19  H    0.469203
    20  H    0.462002
    21  H    0.462650
    22  H    0.494671
    23  H    0.479160
 Sum of Mulliken charges =   1.00000

 Dipole moment (field-independent basis, Debye):
    X=             15.4039    Y=             -1.5397    Z=              1.7430  Tot=             15.5785
 Quadrupole moment (field-independent basis, Debye-Ang):
   XX=             28.4559   YY=            -56.4832   ZZ=            -63.5301
   XY=             11.7504   XZ=              3.8734   YZ=             -0.4919

 ESP charges:
               1
     1  C    0.104447
     2  C   -0.460576
     3  C    0.413147
     4  C    0.270341
     5  C   -0.299915
     6  C   -0.274360
     7  C   -0.175407
     8  C    0.174410
     9  N   -0.481796
    10  O   -0.625395
    11  O   -0.656357
    12  H    0.247515
    13  H    0.201698
    14  H    0.191524
    15  H    0.099829
    16  H    0.092294
    17  H    0.071298
    18  H    0.073951
    19  H    0.362221
    20  H    0.348642
    21  H    0.345894
    22  H    0.487925
    23  H    0.488672
 Sum of ESP charges =   1.00000

 Normal termination of Gaussian 16 at Tue Jun 13 10:48:20 2023.
