 Gaussian 16, Revision C.01,
 Gaussian 16:  ES64L-G16RevC.01  3-Jul-2019

 ----------------------------------
 # opt HF/6-31g* Pop=MK iop(6/33=2)
 ----------------------------------

 -----
 title
 -----
 Symbolic Z-matrix:
 Charge =  1 Multiplicity = 1

 SCF Done:  E(RHF) =  -588.702254769     A.U. after   15 cycles
 SCF Done:  E(RHF) =  -588.719298048     A.U. after   13 cycles
 SCF Done:  E(RHF) =  -588.723380386     A.U. after   14 cycles
 SCF Done:  E(RHF) =  -588.724954820     A.U. after   13 cycles
 SCF Done:  E(RHF) =  -588.725978761     A.U. after   14 cycles
 SCF Done:  E(RHF) =  -588.726421178     A.U. after   13 cycles
 SCF Done:  E(RHF) =  -588.726820529     A.U. after   13 cycles
 SCF Done:  E(RHF) =  -588.726225283     A.U. after   15 cycles
 SCF Done:  E(RHF) =  -588.728036974     A.U. after   13 cycles
 SCF Done:  E(RHF) =  -588.728859995     A.U. after   13 cycles
 SCF Done:  E(RHF) =  -588.736314515     A.U. after   12 cycles
 SCF Done:  E(RHF) =  -588.736428157     A.U. after   12 cycles
 SCF Done:  E(RHF) =  -588.736381318     A.U. after   14 cycles
 SCF Done:  E(RHF) =  -588.736539087     A.U. after   13 cycles
 SCF Done:  E(RHF) =  -588.736513050     A.U. after   12 cycles
 SCF Done:  E(RHF) =  -588.736562526     A.U. after   13 cycles
 SCF Done:  E(RHF) =  -588.736555784     A.U. after   12 cycles
 SCF Done:  E(RHF) =  -588.736564402     A.U. after   12 cycles
 SCF Done:  E(RHF) =  -588.736563964     A.U. after   11 cycles
 SCF Done:  E(RHF) =  -588.736564497     A.U. after   10 cycles
 Optimization completed.
    -- Stationary point found.

                         Standard orientation:
 ---------------------------------------------------------------------
 Center     Atomic      Atomic             Coordinates (Angstroms)
 Number     Number       Type             X           Y           Z
 ---------------------------------------------------------------------
      1          6           0       -1.420085    1.566453    0.170901
      2          6           0       -0.074543    1.291401   -0.017850
      3          6           0       -0.587331   -1.040669   -0.252356
      4          6           0        2.567343   -0.237746    0.915228
      5          6           0       -2.348973    0.545467    0.154522
      6          6           0       -1.922737   -0.768298   -0.061266
      7          6           0        0.352111   -0.009136   -0.229371
      8          6           0        1.818839   -0.319693   -0.413555
      9          7           0        4.050928   -0.313761    0.633542
     10          8           0       -3.641229    0.827486    0.338260
     11          8           0       -2.905676   -1.698073   -0.063962
     12          8           0        2.503606    0.594622   -1.233722
     13          1           0       -1.765457    2.570705    0.327896
     14          1           0        0.631134    2.102687   -0.013925
     15          1           0       -0.278657   -2.058017   -0.428684
     16          1           0        2.310700   -1.039636    1.590089
     17          1           0        2.398576    0.714933    1.392326
     18          1           0        1.926432   -1.324216   -0.817082
     19          1           0        4.609763   -0.100269    1.447319
     20          1           0        4.328099   -1.226848    0.301769
     21          1           0        4.267557    0.352184   -0.099819
     22          1           0       -4.168868    0.038765    0.285439
     23          1           0       -2.593868   -2.558158   -0.310422
     24          1           0        2.016735    0.765238   -2.031816
 ---------------------------------------------------------------------

 The electronic state is 1-A.
 Alpha  occ. eigenvalues --  -20.72897 -20.70678 -20.68479 -15.87882 -11.46586
 Alpha  occ. eigenvalues --  -11.45839 -11.41142 -11.40725 -11.36400 -11.35962
 Alpha  occ. eigenvalues --  -11.35226 -11.33850  -1.54668  -1.53503  -1.49928
 Alpha  occ. eigenvalues --   -1.49570  -1.27719  -1.20752  -1.13684  -1.12454
 Alpha  occ. eigenvalues --   -1.03553  -0.98257  -0.97400  -0.96249  -0.92519
 Alpha  occ. eigenvalues --   -0.87490  -0.86074  -0.84370  -0.82821  -0.80077
 Alpha  occ. eigenvalues --   -0.78236  -0.75100  -0.73623  -0.72248  -0.71954
 Alpha  occ. eigenvalues --   -0.69878  -0.69482  -0.67715  -0.65980  -0.63725
 Alpha  occ. eigenvalues --   -0.62336  -0.60502  -0.58399  -0.44810  -0.41267
 Alpha virt. eigenvalues --   -0.00345   0.02597   0.03581   0.06625   0.09445
 Alpha virt. eigenvalues --    0.09493   0.11126   0.11854   0.13270   0.15369
 Alpha virt. eigenvalues --    0.15956   0.17482   0.19121   0.21035   0.22564

 Mulliken charges:
               1
     1  C   -0.233013
     2  C   -0.221437
     3  C   -0.277516
     4  C   -0.214930
     5  C    0.394020
     6  C    0.352444
     7  C   -0.067205
     8  C    0.159302
     9  N   -0.867439
    10  O   -0.741453
    11  O   -0.775692
    12  O   -0.787595
    13  H    0.253086
    14  H    0.224474
    15  H    0.211664
    16  H    0.259316
    17  H    0.265775
    18  H    0.196636
    19  H    0.466228
    20  H    0.457561
    21  H    0.490583
    22  H    0.494905
    23  H    0.475979
    24  H    0.484306
 Sum of Mulliken charges =   1.00000

 Dipole moment (field-independent basis, Debye):
    X=             14.2566    Y=             -3.9416    Z=              1.5061  Tot=             14.8679
 Quadrupole moment (field-independent basis, Debye-Ang):
   XX=             -3.0885   YY=            -55.9701   ZZ=            -63.4491
   XY=             -0.3623   XZ=             12.4367   YZ=              0.4069

 ESP charges:
               1
     1  C   -0.299679
     2  C   -0.233501
     3  C   -0.390427
     4  C    0.095039
     5  C    0.427624
     6  C    0.294356
     7  C   -0.093809
     8  C    0.363574
     9  N   -0.377126
    10  O   -0.637417
    11  O   -0.677162
    12  O   -0.752118
    13  H    0.229691
    14  H    0.191408
    15  H    0.185040
    16  H    0.064746
    17  H    0.094412
    18  H    0.030599
    19  H    0.336147
    20  H    0.318796
    21  H    0.340063
    22  H    0.496462
    23  H    0.499220
    24  H    0.494064
 Sum of ESP charges =   1.00000

 Normal termination of Gaussian 16 at Tue Jun 13 11:12:09 2023.
